<?xml version="1.0" encoding="UTF-8"?>

<!-- generated on 2023-04-11 11:20:44 by Eclipse SUMO GUI Version 1.16.0
<configuration xmlns:xsi="http://www.w3.org/2001/XMLSchema-instance" xsi:noNamespaceSchemaLocation="http://sumo.dlr.de/xsd/sumoConfiguration.xsd">

    <input>
        <net-file value="network/city.net.xml"/>
        <route-files value="network/city.rou.xml"/>
    </input>

    <output>
        <tripinfo-output value="tripinfo.xml"/>
    </output>

    <time>
        <begin value="0"/>
        <end value="200"/>
    </time>

    <report>
        <verbose value="true"/>
        <no-step-log value="true"/>
    </report>

    <traci_server>
        <remote-port value="39261"/>
    </traci_server>

</configuration>
-->

<tripinfos xmlns:xsi="http://www.w3.org/2001/XMLSchema-instance" xsi:noNamespaceSchemaLocation="http://sumo.dlr.de/xsd/tripinfo_file.xsd">
    <tripinfo id="13" depart="13.00" departLane="-gneE14_0" departPos="5.10" departSpeed="0.00" departDelay="0.00" arrival="23.00" arrivalLane="-gneE14_0" arrivalPos="89.60" arrivalSpeed="14.27" duration="10.00" routeLength="84.50" waitingTime="0.00" waitingCount="0" stopTime="0.00" timeLoss="3.61" rerouteNo="0" devices="tripinfo_13" vType="DEFAULT_VEHTYPE" speedFactor="1.09" vaporized=""/>
    <tripinfo id="8" depart="8.00" departLane="-gneE26_0" departPos="5.10" departSpeed="0.00" departDelay="0.00" arrival="43.00" arrivalLane="gneE14_0" arrivalPos="89.60" arrivalSpeed="14.14" duration="35.00" routeLength="391.59" waitingTime="0.00" waitingCount="0" stopTime="0.00" timeLoss="6.74" rerouteNo="0" devices="tripinfo_8" vType="DEFAULT_VEHTYPE" speedFactor="1.05" vaporized=""/>
    <tripinfo id="30" depart="30.00" departLane="gneE9_0" departPos="5.10" departSpeed="0.00" departDelay="0.00" arrival="64.00" arrivalLane="gneE2_0" arrivalPos="185.60" arrivalSpeed="13.23" duration="34.00" routeLength="379.13" waitingTime="0.00" waitingCount="0" stopTime="0.00" timeLoss="5.41" rerouteNo="0" devices="tripinfo_30" vType="DEFAULT_VEHTYPE" speedFactor="0.97" vaporized=""/>
    <tripinfo id="9" depart="9.00" departLane="gneE3_0" departPos="5.10" departSpeed="0.00" departDelay="0.00" arrival="80.00" arrivalLane="-gneE0_0" arrivalPos="92.80" arrivalSpeed="11.76" duration="71.00" routeLength="671.38" waitingTime="0.00" waitingCount="0" stopTime="0.00" timeLoss="12.65" rerouteNo="0" devices="tripinfo_9" vType="DEFAULT_VEHTYPE" speedFactor="0.89" vaporized=""/>
    <tripinfo id="25" depart="25.00" departLane="-gneE34_0" departPos="5.10" departSpeed="0.00" departDelay="0.00" arrival="80.00" arrivalLane="-gneE22_0" arrivalPos="85.60" arrivalSpeed="12.23" duration="55.00" routeLength="580.18" waitingTime="0.00" waitingCount="0" stopTime="0.00" timeLoss="8.25" rerouteNo="0" devices="tripinfo_25" vType="DEFAULT_VEHTYPE" speedFactor="0.94" vaporized=""/>
    <tripinfo id="20" depart="20.00" departLane="gneE22_0" departPos="5.10" departSpeed="0.00" departDelay="0.00" arrival="86.00" arrivalLane="-gneE10_0" arrivalPos="96.80" arrivalSpeed="12.69" duration="66.00" routeLength="579.33" waitingTime="8.00" waitingCount="1" stopTime="0.00" timeLoss="19.22" rerouteNo="0" devices="tripinfo_20" vType="DEFAULT_VEHTYPE" speedFactor="0.93" vaporized=""/>
    <tripinfo id="52" depart="52.00" departLane="-gneE29_0" departPos="5.10" departSpeed="0.00" departDelay="0.00" arrival="89.00" arrivalLane="gneE21_0" arrivalPos="87.62" arrivalSpeed="15.29" duration="37.00" routeLength="413.15" waitingTime="0.00" waitingCount="0" stopTime="0.00" timeLoss="8.75" rerouteNo="0" devices="tripinfo_52" vType="DEFAULT_VEHTYPE" speedFactor="1.10" vaporized=""/>
    <tripinfo id="56" depart="56.00" departLane="gneE0_0" departPos="5.10" departSpeed="0.00" departDelay="0.00" arrival="91.00" arrivalLane="-gneE20_0" arrivalPos="92.80" arrivalSpeed="14.40" duration="35.00" routeLength="284.16" waitingTime="4.00" waitingCount="1" stopTime="0.00" timeLoss="15.04" rerouteNo="0" devices="tripinfo_56" vType="DEFAULT_VEHTYPE" speedFactor="1.09" vaporized=""/>
    <tripinfo id="33" depart="33.00" departLane="-gneE26_0" departPos="5.10" departSpeed="0.00" departDelay="0.00" arrival="92.00" arrivalLane="-gneE10_0" arrivalPos="96.80" arrivalSpeed="10.81" duration="59.00" routeLength="491.90" waitingTime="3.00" waitingCount="1" stopTime="0.00" timeLoss="15.78" rerouteNo="0" devices="tripinfo_33" vType="DEFAULT_VEHTYPE" speedFactor="0.83" vaporized=""/>
    <tripinfo id="90" depart="90.00" departLane="gneE23_0" departPos="5.10" departSpeed="0.00" departDelay="0.00" arrival="99.00" arrivalLane="gneE23_0" arrivalPos="89.60" arrivalSpeed="14.12" duration="9.00" routeLength="84.50" waitingTime="0.00" waitingCount="0" stopTime="0.00" timeLoss="3.05" rerouteNo="0" devices="tripinfo_90" vType="DEFAULT_VEHTYPE" speedFactor="1.02" vaporized=""/>
    <tripinfo id="47" depart="49.00" departLane="-gneE13_0" departPos="5.10" departSpeed="0.00" departDelay="2.00" arrival="101.00" arrivalLane="-gneE38_0" arrivalPos="296.80" arrivalSpeed="15.26" duration="52.00" routeLength="490.87" waitingTime="6.00" waitingCount="1" stopTime="0.00" timeLoss="21.25" rerouteNo="0" devices="tripinfo_47" vType="DEFAULT_VEHTYPE" speedFactor="1.17" vaporized=""/>
    <tripinfo id="0" depart="0.00" departLane="gneE18_0" departPos="5.10" departSpeed="0.00" departDelay="0.00" arrival="106.00" arrivalLane="-gneE1_0" arrivalPos="85.60" arrivalSpeed="13.46" duration="106.00" routeLength="682.01" waitingTime="34.00" waitingCount="3" stopTime="0.00" timeLoss="57.82" rerouteNo="0" devices="tripinfo_0" vType="DEFAULT_VEHTYPE" speedFactor="1.06" vaporized=""/>
    <tripinfo id="7" depart="7.00" departLane="gneE19_0" departPos="5.10" departSpeed="0.00" departDelay="0.00" arrival="108.00" arrivalLane="gneE11_0" arrivalPos="92.80" arrivalSpeed="10.79" duration="101.00" routeLength="678.58" waitingTime="21.00" waitingCount="2" stopTime="0.00" timeLoss="38.69" rerouteNo="0" devices="tripinfo_7" vType="DEFAULT_VEHTYPE" speedFactor="0.83" vaporized=""/>
    <tripinfo id="38" depart="38.00" departLane="gneE4_0" departPos="5.10" departSpeed="0.00" departDelay="0.00" arrival="108.00" arrivalLane="-gneE7_0" arrivalPos="92.80" arrivalSpeed="12.00" duration="70.00" routeLength="587.17" waitingTime="7.00" waitingCount="1" stopTime="0.00" timeLoss="21.09" rerouteNo="0" devices="tripinfo_38" vType="DEFAULT_VEHTYPE" speedFactor="0.92" vaporized=""/>
    <tripinfo id="17" depart="17.00" departLane="-gneE36_0" departPos="5.10" departSpeed="0.00" departDelay="0.00" arrival="110.00" arrivalLane="gneE12_0" arrivalPos="85.60" arrivalSpeed="8.77" duration="93.00" routeLength="687.49" waitingTime="19.00" waitingCount="3" stopTime="0.00" timeLoss="47.87" rerouteNo="0" devices="tripinfo_17" vType="DEFAULT_VEHTYPE" speedFactor="1.12" vaporized=""/>
    <tripinfo id="19" depart="19.00" departLane="gneE35_0" departPos="5.10" departSpeed="0.00" departDelay="0.00" arrival="117.00" arrivalLane="gneE13_0" arrivalPos="92.80" arrivalSpeed="13.06" duration="98.00" routeLength="789.32" waitingTime="18.00" waitingCount="2" stopTime="0.00" timeLoss="39.04" rerouteNo="0" devices="tripinfo_19" vType="DEFAULT_VEHTYPE" speedFactor="0.99" vaporized=""/>
    <tripinfo id="35" depart="35.00" departLane="-gneE25_0" departPos="5.10" departSpeed="0.00" departDelay="0.00" arrival="119.00" arrivalLane="gneE6_0" arrivalPos="92.80" arrivalSpeed="11.34" duration="84.00" routeLength="477.06" waitingTime="24.00" waitingCount="2" stopTime="0.00" timeLoss="42.52" rerouteNo="0" devices="tripinfo_35" vType="DEFAULT_VEHTYPE" speedFactor="0.87" vaporized=""/>
    <tripinfo id="24" depart="24.00" departLane="gneE18_0" departPos="5.10" departSpeed="0.00" departDelay="0.00" arrival="121.00" arrivalLane="-gneE35_0" arrivalPos="292.80" arrivalSpeed="11.61" duration="97.00" routeLength="889.00" waitingTime="4.00" waitingCount="1" stopTime="0.00" timeLoss="20.59" rerouteNo="0" devices="tripinfo_24" vType="DEFAULT_VEHTYPE" speedFactor="0.88" vaporized=""/>
    <tripinfo id="85" depart="87.00" departLane="gneE5_0" departPos="5.10" departSpeed="0.00" departDelay="2.00" arrival="122.00" arrivalLane="gneE13_0" arrivalPos="92.80" arrivalSpeed="11.78" duration="35.00" routeLength="287.49" waitingTime="0.00" waitingCount="0" stopTime="0.00" timeLoss="11.73" rerouteNo="0" devices="tripinfo_85" vType="DEFAULT_VEHTYPE" speedFactor="0.94" vaporized=""/>
    <tripinfo id="6" depart="6.00" departLane="-gneE10_0" departPos="5.10" departSpeed="0.00" departDelay="0.00" arrival="123.00" arrivalLane="-gneE21_0" arrivalPos="87.62" arrivalSpeed="13.56" duration="117.00" routeLength="780.42" waitingTime="37.00" waitingCount="1" stopTime="0.00" timeLoss="60.48" rerouteNo="0" devices="tripinfo_6" vType="DEFAULT_VEHTYPE" speedFactor="1.03" vaporized=""/>
    <tripinfo id="11" depart="11.00" departLane="-gneE32_0" departPos="5.10" departSpeed="0.00" departDelay="0.00" arrival="123.00" arrivalLane="-gneE19_0" arrivalPos="92.80" arrivalSpeed="10.76" duration="112.00" routeLength="1010.21" waitingTime="3.00" waitingCount="1" stopTime="0.00" timeLoss="24.10" rerouteNo="0" devices="tripinfo_11" vType="DEFAULT_VEHTYPE" speedFactor="0.86" vaporized=""/>
    <tripinfo id="26" depart="26.00" departLane="-gneE29_0" departPos="5.10" departSpeed="0.00" departDelay="0.00" arrival="123.00" arrivalLane="gneE5_0" arrivalPos="85.60" arrivalSpeed="12.07" duration="97.00" routeLength="707.67" waitingTime="22.00" waitingCount="1" stopTime="0.00" timeLoss="39.19" rerouteNo="0" devices="tripinfo_26" vType="DEFAULT_VEHTYPE" speedFactor="0.94" vaporized=""/>
    <tripinfo id="28" depart="28.00" departLane="-gneE22_0" departPos="5.10" departSpeed="0.00" departDelay="0.00" arrival="127.00" arrivalLane="gneE26_0" arrivalPos="92.80" arrivalSpeed="12.88" duration="99.00" routeLength="787.27" waitingTime="20.00" waitingCount="2" stopTime="0.00" timeLoss="41.10" rerouteNo="0" devices="tripinfo_28" vType="DEFAULT_VEHTYPE" speedFactor="1.02" vaporized=""/>
    <tripinfo id="94" depart="94.00" departLane="-gneE24_0" departPos="5.10" departSpeed="0.00" departDelay="0.00" arrival="129.00" arrivalLane="-gneE6_0" arrivalPos="92.80" arrivalSpeed="13.37" duration="35.00" routeLength="380.39" waitingTime="0.00" waitingCount="0" stopTime="0.00" timeLoss="5.62" rerouteNo="0" devices="tripinfo_94" vType="DEFAULT_VEHTYPE" speedFactor="0.97" vaporized=""/>
    <tripinfo id="2" depart="2.00" departLane="gneE24_0" departPos="5.10" departSpeed="0.00" departDelay="0.00" arrival="133.00" arrivalLane="gneE23_0" arrivalPos="89.60" arrivalSpeed="12.44" duration="131.00" routeLength="768.59" waitingTime="48.00" waitingCount="1" stopTime="0.00" timeLoss="69.83" rerouteNo="0" devices="tripinfo_2" vType="DEFAULT_VEHTYPE" speedFactor="0.94" vaporized=""/>
    <tripinfo id="10" depart="12.00" departLane="gneE3_0" departPos="5.10" departSpeed="0.00" departDelay="2.00" arrival="134.00" arrivalLane="gneE24_0" arrivalPos="85.60" arrivalSpeed="12.55" duration="122.00" routeLength="669.65" waitingTime="42.00" waitingCount="3" stopTime="0.00" timeLoss="67.74" rerouteNo="0" devices="tripinfo_10" vType="DEFAULT_VEHTYPE" speedFactor="0.94" vaporized=""/>
    <tripinfo id="29" depart="31.00" departLane="-gneE22_0" departPos="5.10" departSpeed="0.00" departDelay="2.00" arrival="137.00" arrivalLane="-gneE38_0" arrivalPos="296.80" arrivalSpeed="13.68" duration="106.00" routeLength="883.56" waitingTime="16.00" waitingCount="2" stopTime="0.00" timeLoss="40.13" rerouteNo="0" devices="tripinfo_29" vType="DEFAULT_VEHTYPE" speedFactor="1.01" vaporized=""/>
    <tripinfo id="53" depart="53.00" departLane="-gneE18_0" departPos="5.10" departSpeed="0.00" departDelay="0.00" arrival="137.00" arrivalLane="-gneE5_0" arrivalPos="85.60" arrivalSpeed="10.43" duration="84.00" routeLength="275.23" waitingTime="33.00" waitingCount="4" stopTime="0.00" timeLoss="60.84" rerouteNo="0" devices="tripinfo_53" vType="DEFAULT_VEHTYPE" speedFactor="0.90" vaporized=""/>
    <tripinfo id="97" depart="97.00" departLane="-gneE6_0" departPos="5.10" departSpeed="0.00" departDelay="0.00" arrival="137.00" arrivalLane="gneE34_0" arrivalPos="85.60" arrivalSpeed="13.90" duration="40.00" routeLength="282.33" waitingTime="8.00" waitingCount="1" stopTime="0.00" timeLoss="19.37" rerouteNo="0" devices="tripinfo_97" vType="DEFAULT_VEHTYPE" speedFactor="1.06" vaporized=""/>
    <tripinfo id="4" depart="4.00" departLane="-gneE5_0" departPos="5.10" departSpeed="0.00" departDelay="0.00" arrival="139.00" arrivalLane="-gneE1_0" arrivalPos="85.60" arrivalSpeed="13.60" duration="135.00" routeLength="374.92" waitingTime="92.00" waitingCount="2" stopTime="0.00" timeLoss="106.43" rerouteNo="0" devices="tripinfo_4" vType="DEFAULT_VEHTYPE" speedFactor="1.01" vaporized=""/>
    <tripinfo id="88" depart="88.00" departLane="-gneE17_0" departPos="5.10" departSpeed="0.00" departDelay="0.00" arrival="139.00" arrivalLane="-gneE5_0" arrivalPos="85.60" arrivalSpeed="10.43" duration="51.00" routeLength="182.33" waitingTime="10.00" waitingCount="1" stopTime="0.00" timeLoss="35.53" rerouteNo="0" devices="tripinfo_88" vType="DEFAULT_VEHTYPE" speedFactor="0.91" vaporized=""/>
    <tripinfo id="55" depart="55.00" departLane="gneE38_0" departPos="5.10" departSpeed="0.00" departDelay="0.00" arrival="140.00" arrivalLane="-gneE25_0" arrivalPos="92.80" arrivalSpeed="12.28" duration="85.00" routeLength="880.23" waitingTime="0.00" waitingCount="0" stopTime="0.00" timeLoss="15.84" rerouteNo="0" devices="tripinfo_55" vType="DEFAULT_VEHTYPE" speedFactor="0.96" vaporized=""/>
    <tripinfo id="86" depart="86.00" departLane="-gneE8_0" departPos="5.10" departSpeed="0.00" departDelay="0.00" arrival="148.00" arrivalLane="gneE3_0" arrivalPos="185.60" arrivalSpeed="7.25" duration="62.00" routeLength="375.13" waitingTime="18.00" waitingCount="1" stopTime="0.00" timeLoss="30.72" rerouteNo="0" devices="tripinfo_86" vType="DEFAULT_VEHTYPE" speedFactor="0.88" vaporized=""/>
    <tripinfo id="127" depart="144.00" departLane="gneE9_0" departPos="5.10" departSpeed="0.00" departDelay="17.00" arrival="154.00" arrivalLane="gneE9_0" arrivalPos="89.60" arrivalSpeed="11.54" duration="10.00" routeLength="84.50" waitingTime="0.00" waitingCount="0" stopTime="0.00" timeLoss="3.18" rerouteNo="0" devices="tripinfo_127" vType="DEFAULT_VEHTYPE" speedFactor="0.91" vaporized=""/>
    <tripinfo id="57" depart="58.00" departLane="gneE4_0" departPos="5.10" departSpeed="0.00" departDelay="1.00" arrival="155.00" arrivalLane="gneE34_0" arrivalPos="85.60" arrivalSpeed="13.52" duration="97.00" routeLength="664.18" waitingTime="22.00" waitingCount="2" stopTime="0.00" timeLoss="48.36" rerouteNo="0" devices="tripinfo_57" vType="DEFAULT_VEHTYPE" speedFactor="1.04" vaporized=""/>
    <tripinfo id="76" depart="82.00" departLane="-gneE6_0" departPos="5.10" departSpeed="0.00" departDelay="6.00" arrival="158.00" arrivalLane="gneE10_0" arrivalPos="96.80" arrivalSpeed="15.37" duration="76.00" routeLength="596.03" waitingTime="22.00" waitingCount="1" stopTime="0.00" timeLoss="36.70" rerouteNo="0" devices="tripinfo_76" vType="DEFAULT_VEHTYPE" speedFactor="1.14" vaporized=""/>
    <tripinfo id="74" depart="75.00" departLane="-gneE24_0" departPos="5.10" departSpeed="0.00" departDelay="1.00" arrival="161.00" arrivalLane="-gneE3_0" arrivalPos="185.60" arrivalSpeed="12.28" duration="86.00" routeLength="674.81" waitingTime="9.00" waitingCount="2" stopTime="0.00" timeLoss="29.76" rerouteNo="0" devices="tripinfo_74" vType="DEFAULT_VEHTYPE" speedFactor="0.90" vaporized=""/>
    <tripinfo id="27" depart="27.00" departLane="gneE19_0" departPos="5.10" departSpeed="0.00" departDelay="0.00" arrival="166.00" arrivalLane="gneE17_0" arrivalPos="92.80" arrivalSpeed="15.98" duration="139.00" routeLength="585.39" waitingTime="81.00" waitingCount="1" stopTime="0.00" timeLoss="99.40" rerouteNo="0" devices="tripinfo_27" vType="DEFAULT_VEHTYPE" speedFactor="1.16" vaporized=""/>
    <tripinfo id="5" depart="5.00" departLane="-gneE25_0" departPos="5.10" departSpeed="0.00" departDelay="0.00" arrival="167.00" arrivalLane="gneE1_0" arrivalPos="85.60" arrivalSpeed="8.64" duration="162.00" routeLength="774.81" waitingTime="85.00" waitingCount="2" stopTime="0.00" timeLoss="107.97" rerouteNo="0" devices="tripinfo_5" vType="DEFAULT_VEHTYPE" speedFactor="1.08" vaporized=""/>
    <tripinfo id="68" depart="68.00" departLane="-gneE13_0" departPos="5.10" departSpeed="0.00" departDelay="0.00" arrival="173.00" arrivalLane="gneE28_0" arrivalPos="216.45" arrivalSpeed="15.36" duration="105.00" routeLength="798.93" waitingTime="22.00" waitingCount="2" stopTime="0.00" timeLoss="54.27" rerouteNo="0" devices="tripinfo_68" vType="DEFAULT_VEHTYPE" speedFactor="1.17" vaporized=""/>
    <tripinfo id="67" depart="67.00" departLane="-gneE14_0" departPos="5.10" departSpeed="0.00" departDelay="0.00" arrival="174.00" arrivalLane="-gneE9_0" arrivalPos="89.60" arrivalSpeed="11.41" duration="107.00" routeLength="688.08" waitingTime="16.00" waitingCount="3" stopTime="0.00" timeLoss="46.96" rerouteNo="0" devices="tripinfo_67" vType="DEFAULT_VEHTYPE" speedFactor="0.85" vaporized=""/>
    <tripinfo id="66" depart="67.00" departLane="gneE38_0" departPos="5.10" departSpeed="0.00" departDelay="1.00" arrival="178.00" arrivalLane="gneE6_0" arrivalPos="92.80" arrivalSpeed="11.68" duration="111.00" routeLength="690.87" waitingTime="31.00" waitingCount="2" stopTime="0.00" timeLoss="50.90" rerouteNo="0" devices="tripinfo_66" vType="DEFAULT_VEHTYPE" speedFactor="0.85" vaporized=""/>
    <tripinfo id="110" depart="110.00" departLane="gneE7_0" departPos="5.10" departSpeed="0.00" departDelay="0.00" arrival="179.00" arrivalLane="gneE14_0" arrivalPos="89.60" arrivalSpeed="14.89" duration="69.00" routeLength="580.85" waitingTime="9.00" waitingCount="1" stopTime="0.00" timeLoss="30.53" rerouteNo="0" devices="tripinfo_110" vType="DEFAULT_VEHTYPE" speedFactor="1.15" vaporized=""/>
    <tripinfo id="141" depart="144.00" departLane="gneE18_0" departPos="5.10" departSpeed="0.00" departDelay="3.00" arrival="180.00" arrivalLane="-gneE25_0" arrivalPos="92.80" arrivalSpeed="12.92" duration="36.00" routeLength="284.16" waitingTime="2.00" waitingCount="1" stopTime="0.00" timeLoss="13.29" rerouteNo="0" devices="tripinfo_141" vType="DEFAULT_VEHTYPE" speedFactor="0.96" vaporized=""/>
    <tripinfo id="146" depart="147.00" departLane="gneE18_0" departPos="5.10" departSpeed="0.00" departDelay="1.00" arrival="182.00" arrivalLane="-gneE25_0" arrivalPos="92.80" arrivalSpeed="14.60" duration="35.00" routeLength="284.16" waitingTime="2.00" waitingCount="1" stopTime="0.00" timeLoss="14.87" rerouteNo="0" devices="tripinfo_146" vType="DEFAULT_VEHTYPE" speedFactor="1.10" vaporized=""/>
    <tripinfo id="138" depart="138.00" departLane="-gneE17_0" departPos="5.10" departSpeed="0.00" departDelay="0.00" arrival="185.00" arrivalLane="gneE12_0" arrivalPos="85.60" arrivalSpeed="8.26" duration="47.00" routeLength="187.49" waitingTime="21.00" waitingCount="1" stopTime="0.00" timeLoss="32.73" rerouteNo="0" devices="tripinfo_138" vType="DEFAULT_VEHTYPE" speedFactor="1.01" vaporized=""/>
    <tripinfo id="49" depart="49.00" departLane="gneE8_0" departPos="5.10" departSpeed="0.00" departDelay="0.00" arrival="191.00" arrivalLane="gneE34_0" arrivalPos="85.60" arrivalSpeed="13.70" duration="142.00" routeLength="781.73" waitingTime="60.00" waitingCount="1" stopTime="0.00" timeLoss="85.51" rerouteNo="0" devices="tripinfo_49" vType="DEFAULT_VEHTYPE" speedFactor="1.02" vaporized=""/>
    <tripinfo id="125" depart="125.00" departLane="-gneE31_0" departPos="5.10" departSpeed="0.00" departDelay="0.00" arrival="193.00" arrivalLane="gneE28_0" arrivalPos="216.45" arrivalSpeed="14.34" duration="68.00" routeLength="503.77" waitingTime="15.00" waitingCount="1" stopTime="0.00" timeLoss="31.86" rerouteNo="0" devices="tripinfo_125" vType="DEFAULT_VEHTYPE" speedFactor="1.06" vaporized=""/>
    <tripinfo id="63" depart="63.00" departLane="-gneE10_0" departPos="5.10" departSpeed="0.00" departDelay="0.00" arrival="196.00" arrivalLane="gneE5_0" arrivalPos="85.60" arrivalSpeed="13.46" duration="133.00" routeLength="573.14" waitingTime="67.00" waitingCount="2" stopTime="0.00" timeLoss="89.68" rerouteNo="0" devices="tripinfo_63" vType="DEFAULT_VEHTYPE" speedFactor="1.00" vaporized=""/>
    <tripinfo id="60" depart="60.00" departLane="gneE25_0" departPos="5.10" departSpeed="0.00" departDelay="0.00" arrival="197.00" arrivalLane="gneE11_0" arrivalPos="92.80" arrivalSpeed="14.09" duration="137.00" routeLength="589.00" waitingTime="65.00" waitingCount="3" stopTime="0.00" timeLoss="94.64" rerouteNo="0" devices="tripinfo_60" vType="DEFAULT_VEHTYPE" speedFactor="1.09" vaporized=""/>
    <tripinfo id="107" depart="107.00" departLane="gneE7_0" departPos="5.10" departSpeed="0.00" departDelay="0.00" arrival="198.00" arrivalLane="gneE9_0" arrivalPos="89.60" arrivalSpeed="13.62" duration="91.00" routeLength="773.34" waitingTime="10.00" waitingCount="1" stopTime="0.00" timeLoss="33.70" rerouteNo="0" devices="tripinfo_107" vType="DEFAULT_VEHTYPE" speedFactor="1.02" vaporized=""/>
    <tripinfo id="131" depart="132.00" departLane="-gneE34_0" departPos="5.10" departSpeed="0.00" departDelay="1.00" arrival="199.00" arrivalLane="-gneE2_0" arrivalPos="185.60" arrivalSpeed="9.40" duration="67.00" routeLength="375.13" waitingTime="20.00" waitingCount="2" stopTime="0.00" timeLoss="37.59" rerouteNo="0" devices="tripinfo_131" vType="DEFAULT_VEHTYPE" speedFactor="0.96" vaporized=""/>
    <tripinfo id="54" depart="58.00" departLane="-gneE7_0" departPos="5.10" departSpeed="0.00" departDelay="4.00" arrival="201.00" arrivalLane="gneE7_0" arrivalPos="92.80" arrivalSpeed="8.70" duration="143.00" routeLength="964.38" waitingTime="32.00" waitingCount="3" stopTime="0.00" timeLoss="73.03" rerouteNo="0" devices="tripinfo_54" vType="DEFAULT_VEHTYPE" speedFactor="1.03" vaporized=""/>
    <tripinfo id="70" depart="71.00" departLane="-gneE8_0" departPos="5.10" departSpeed="0.00" departDelay="1.00" arrival="201.00" arrivalLane="gneE12_0" arrivalPos="85.60" arrivalSpeed="12.93" duration="130.00" routeLength="469.76" waitingTime="80.00" waitingCount="2" stopTime="0.00" timeLoss="95.24" rerouteNo="0" devices="tripinfo_70" vType="DEFAULT_VEHTYPE" speedFactor="1.02" vaporized=""/>
    <tripinfo id="112" depart="112.00" departLane="-gneE12_0" departPos="5.10" departSpeed="0.00" departDelay="0.00" arrival="203.00" arrivalLane="gneE14_0" arrivalPos="89.60" arrivalSpeed="12.96" duration="91.00" routeLength="668.38" waitingTime="16.00" waitingCount="2" stopTime="0.00" timeLoss="40.23" rerouteNo="0" devices="tripinfo_112" vType="DEFAULT_VEHTYPE" speedFactor="1.00" vaporized=""/>
    <tripinfo id="148" depart="148.00" departLane="-gneE5_0" departPos="5.10" departSpeed="0.00" departDelay="0.00" arrival="203.00" arrivalLane="-gneE0_0" arrivalPos="92.80" arrivalSpeed="15.04" duration="55.00" routeLength="487.49" waitingTime="7.00" waitingCount="1" stopTime="0.00" timeLoss="21.44" rerouteNo="0" devices="tripinfo_148" vType="DEFAULT_VEHTYPE" speedFactor="1.10" vaporized=""/>
    <tripinfo id="73" depart="73.00" departLane="gneE10_0" departPos="5.10" departSpeed="0.00" departDelay="0.00" arrival="204.00" arrivalLane="gneE26_0" arrivalPos="92.80" arrivalSpeed="13.83" duration="131.00" routeLength="491.90" waitingTime="79.00" waitingCount="2" stopTime="0.00" timeLoss="94.78" rerouteNo="0" devices="tripinfo_73" vType="DEFAULT_VEHTYPE" speedFactor="1.00" vaporized=""/>
    <tripinfo id="87" depart="89.00" departLane="gneE3_0" departPos="5.10" departSpeed="0.00" departDelay="2.00" arrival="206.00" arrivalLane="-gneE21_0" arrivalPos="87.62" arrivalSpeed="12.29" duration="117.00" routeLength="576.83" waitingTime="50.00" waitingCount="2" stopTime="0.00" timeLoss="68.44" rerouteNo="0" devices="tripinfo_87" vType="DEFAULT_VEHTYPE" speedFactor="0.91" vaporized=""/>
    <tripinfo id="71" depart="71.00" departLane="-gneE28_0" departPos="5.10" departSpeed="0.00" departDelay="0.00" arrival="209.00" arrivalLane="gneE34_0" arrivalPos="85.60" arrivalSpeed="14.70" duration="138.00" routeLength="699.16" waitingTime="71.00" waitingCount="2" stopTime="0.00" timeLoss="90.03" rerouteNo="0" devices="tripinfo_71" vType="DEFAULT_VEHTYPE" speedFactor="1.10" vaporized=""/>
    <tripinfo id="115" depart="115.00" departLane="-gneE14_0" departPos="5.10" departSpeed="0.00" departDelay="0.00" arrival="209.00" arrivalLane="-gneE20_0" arrivalPos="92.80" arrivalSpeed="13.76" duration="94.00" routeLength="591.49" waitingTime="22.00" waitingCount="3" stopTime="0.00" timeLoss="51.49" rerouteNo="0" devices="tripinfo_115" vType="DEFAULT_VEHTYPE" speedFactor="1.02" vaporized=""/>
    <tripinfo id="43" depart="43.00" departLane="gneE9_0" departPos="5.10" departSpeed="0.00" departDelay="0.00" arrival="210.00" arrivalLane="gneE1_0" arrivalPos="85.60" arrivalSpeed="16.01" duration="167.00" routeLength="778.50" waitingTime="96.00" waitingCount="2" stopTime="0.00" timeLoss="116.73" rerouteNo="0" devices="tripinfo_43" vType="DEFAULT_VEHTYPE" speedFactor="1.18" vaporized=""/>
    <tripinfo id="111" depart="120.00" departLane="gneE10_0" departPos="5.10" departSpeed="0.00" departDelay="9.00" arrival="211.00" arrivalLane="gneE27_0" arrivalPos="92.80" arrivalSpeed="13.26" duration="91.00" routeLength="486.53" waitingTime="33.00" waitingCount="2" stopTime="0.00" timeLoss="54.36" rerouteNo="0" devices="tripinfo_111" vType="DEFAULT_VEHTYPE" speedFactor="0.98" vaporized=""/>
    <tripinfo id="16" depart="16.00" departLane="gneE10_0" departPos="5.10" departSpeed="0.00" departDelay="0.00" arrival="212.00" arrivalLane="gneE8_0" arrivalPos="85.60" arrivalSpeed="13.87" duration="196.00" routeLength="683.97" waitingTime="117.00" waitingCount="3" stopTime="0.00" timeLoss="145.97" rerouteNo="0" devices="tripinfo_16" vType="DEFAULT_VEHTYPE" speedFactor="1.05" vaporized=""/>
    <tripinfo id="15" depart="15.00" departLane="gneE3_0" departPos="5.10" departSpeed="0.00" departDelay="0.00" arrival="213.00" arrivalLane="gneE26_0" arrivalPos="92.80" arrivalSpeed="14.19" duration="198.00" routeLength="782.22" waitingTime="100.00" waitingCount="4" stopTime="0.00" timeLoss="141.32" rerouteNo="0" devices="tripinfo_15" vType="DEFAULT_VEHTYPE" speedFactor="1.03" vaporized=""/>
    <tripinfo id="83" depart="83.00" departLane="-gneE27_0" departPos="5.10" departSpeed="0.00" departDelay="0.00" arrival="213.00" arrivalLane="gneE22_0" arrivalPos="85.60" arrivalSpeed="13.76" duration="130.00" routeLength="771.58" waitingTime="33.00" waitingCount="3" stopTime="0.00" timeLoss="71.47" rerouteNo="0" devices="tripinfo_83" vType="DEFAULT_VEHTYPE" speedFactor="1.02" vaporized=""/>
    <tripinfo id="84" depart="87.00" departLane="-gneE25_0" departPos="5.10" departSpeed="0.00" departDelay="3.00" arrival="213.00" arrivalLane="-gneE18_0" arrivalPos="92.80" arrivalSpeed="13.68" duration="126.00" routeLength="766.42" waitingTime="41.00" waitingCount="2" stopTime="0.00" timeLoss="66.23" rerouteNo="0" devices="tripinfo_84" vType="DEFAULT_VEHTYPE" speedFactor="0.99" vaporized=""/>
    <tripinfo id="50" depart="50.00" departLane="-gneE1_0" departPos="5.10" departSpeed="0.00" departDelay="0.00" arrival="215.00" arrivalLane="gneE26_0" arrivalPos="92.80" arrivalSpeed="12.59" duration="165.00" routeLength="876.85" waitingTime="59.00" waitingCount="1" stopTime="0.00" timeLoss="97.76" rerouteNo="0" devices="tripinfo_50" vType="DEFAULT_VEHTYPE" speedFactor="0.97" vaporized=""/>
    <tripinfo id="128" depart="129.00" departLane="-gneE13_0" departPos="5.10" departSpeed="0.00" departDelay="1.00" arrival="215.00" arrivalLane="-gneE22_0" arrivalPos="85.60" arrivalSpeed="8.14" duration="86.00" routeLength="476.85" waitingTime="26.00" waitingCount="2" stopTime="0.00" timeLoss="53.36" rerouteNo="0" devices="tripinfo_128" vType="DEFAULT_VEHTYPE" speedFactor="1.12" vaporized=""/>
    <tripinfo id="96" depart="96.00" departLane="-gneE27_0" departPos="5.10" departSpeed="0.00" departDelay="0.00" arrival="216.00" arrivalLane="gneE5_0" arrivalPos="85.60" arrivalSpeed="13.06" duration="120.00" routeLength="587.38" waitingTime="52.00" waitingCount="2" stopTime="0.00" timeLoss="72.84" rerouteNo="0" devices="tripinfo_96" vType="DEFAULT_VEHTYPE" speedFactor="0.94" vaporized=""/>
    <tripinfo id="102" depart="102.00" departLane="-gneE9_0" departPos="5.10" departSpeed="0.00" departDelay="0.00" arrival="217.00" arrivalLane="-gneE22_0" arrivalPos="85.60" arrivalSpeed="9.54" duration="115.00" routeLength="681.83" waitingTime="39.00" waitingCount="2" stopTime="0.00" timeLoss="63.18" rerouteNo="0" devices="tripinfo_102" vType="DEFAULT_VEHTYPE" speedFactor="0.98" vaporized=""/>
    <tripinfo id="104" depart="104.00" departLane="-gneE36_0" departPos="5.10" departSpeed="0.00" departDelay="0.00" arrival="217.00" arrivalLane="gneE9_0" arrivalPos="89.60" arrivalSpeed="14.21" duration="113.00" routeLength="978.40" waitingTime="15.00" waitingCount="2" stopTime="0.00" timeLoss="46.71" rerouteNo="0" devices="tripinfo_104" vType="DEFAULT_VEHTYPE" speedFactor="1.09" vaporized=""/>
    <tripinfo id="45" depart="45.00" departLane="-gneE18_0" departPos="5.10" departSpeed="0.00" departDelay="0.00" arrival="218.00" arrivalLane="gneE2_0" arrivalPos="185.60" arrivalSpeed="9.03" duration="173.00" routeLength="865.93" waitingTime="67.00" waitingCount="4" stopTime="0.00" timeLoss="108.34" rerouteNo="0" devices="tripinfo_45" vType="DEFAULT_VEHTYPE" speedFactor="1.01" vaporized=""/>
    <tripinfo id="136" depart="136.00" departLane="gneE2_0" departPos="5.10" departSpeed="0.00" departDelay="0.00" arrival="220.00" arrivalLane="gneE6_0" arrivalPos="92.80" arrivalSpeed="11.93" duration="84.00" routeLength="287.70" waitingTime="43.00" waitingCount="2" stopTime="0.00" timeLoss="59.98" rerouteNo="0" devices="tripinfo_136" vType="DEFAULT_VEHTYPE" speedFactor="0.89" vaporized=""/>